# vtk DataFile Version 3.0
MOAB 5.1.0
ASCII
DATASET UNSTRUCTURED_GRID
POINTS 164 double
1.950018661 3.377488301 -50
-1.949962678 3.377520622 -50
-0.1874620808 -0.108256715 -50
0.05117990745 -0.5356272595 -47.54027516
3.9 -9.552245033e-16 -50
-1.989624501 -3.354309817 -43.57512461
0.06077776468 0.291791407 -43.40906881
-0.05422136898 -3.899623064 -46.40112838
-3.9 4.776122517e-16 -45.61247226
-1.950016572 -3.377489507 -50
3.9 -9.552245033e-16 -45.61247226
2.038233779 3.324996701 -43.55878195
0.05520299303 3.899609292 -46.38171347
1.949966855 -3.377518211 -50
1.895825235 -3.408202852 -43.48729826
-1.929472357 -3.38926783 25.25186338
1.913620451 -3.398243189 29.85230732
1.987814999 -3.355382472 25.32367132
0.02957713294 -0.01188941807 28.09960438
-3.9 4.776122517e-16 13.83150528
-1.952742968 3.375913936 11.5262562
-1.952742968 3.375913936 16.13675436
-0.0006498194695 -0.0002117715267 13.83279994
1.930391467 3.388744426 11.59842223
1.930392865 3.388743629 16.20922078
-1.930345104 -3.388770836 16.06427745
-3.9 4.776122517e-16 18.44200344
0.0004590978838 0.003163323993 18.440062
-3.9 4.776122517e-16 9.221007124
-1.930346562 -3.388770005 11.45408031
0.00166345924 -0.002461311096 9.218600885
1.952742968 -3.375913936 16.13675436
1.952742968 -3.375913936 11.5262562
1.932525078 3.387528129 -2.371223216
-1.931589428 3.388061729 -2.236684672
-0.2973895965 0.07112979387 -2.283962886
0.1404489156 0.0292282506 0.818495404
3.9 -9.552245033e-16 4.610508964
-0.007569774976 -0.002458205814 4.613167361
1.952742968 3.375913936 2.305259884
3.9 -9.552245033e-16 1.080371815e-05
2.021883749 -3.334964184 -2.305243505
-1.886824287 -3.413194121 -2.304935607
1.952742968 -3.375913936 2.305259884
-3.9 4.776122517e-16 -18.44198184
-1.988266791 3.355114777 -16.13654733
0.266645595 0.01522356105 -16.13804247
-0.0464653228 -0.006090032771 -19.00412527
1.952742968 3.375913936 -16.13673276
3.9 -9.552245033e-16 -18.44198184
1.988333431 -3.355075285 -16.14193535
3.9 -9.552245033e-16 -23.05248
0.115861837 -0.03774383233 -23.17987029
1.887441439 -3.412852885 -20.74405445
2.021856318 3.334980814 -20.74275576
3.9 -9.552245033e-16 -36.60665403
0.1722040973 -0.2078005853 -39.50469027
2.08547601 -3.295571242 -38.86955025
-0.1923481874 -0.03534879879 -35.970676
-3.9 4.776122517e-16 -36.60665403
-2.055678977 3.314239572 -38.86215143
-1.913621178 3.398242779 -34.35519947
-0.004413854627 0.002057355661 -32.10450756
-3.9 4.776122517e-16 -32.10374491
-1.701211711 -3.509398626 -39.25017517
-2.044067618 -3.32141349 -34.40710285
3.9 -9.552245033e-16 18.44200344
1.93111983 3.388329411 20.81627487
0.08315047799 -0.03061991873 22.51358371
1.952742988 3.375913924 25.32667814
0.03478222419 -0.0231565536 25.32448765
-1.952742988 3.375913924 25.32667814
-3.9 4.776122517e-16 23.0525016
-1.930345008 -3.388770891 20.67268404
-1.952742968 3.375913936 20.74725252
-3.9 4.776122517e-16 27.60085468
-3.9 4.776122517e-16 32.10375996
-0.001633098621 -0.001111052704 32.10707864
-1.989745229 -3.354238203 29.8380929
-1.913620451 3.398243189 29.85230732
-3.9 4.776122517e-16 -13.83148368
-1.952742968 -3.375913936 -16.13673276
-0.4355589482 0.1314759924 -11.80845307
-3.9 4.776122517e-16 -9.220985516
-1.931536827 3.388091718 -11.59478836
1.930335688 -3.3887762 -11.59389501
-1.930335688 -3.3887762 6.848097633
1.952742968 -3.375913936 6.915758044
3.9 -9.552245033e-16 27.60085468
3.9 -9.552245033e-16 23.0525016
3.9 -9.552245033e-16 41.10957053
0.2622239091 -0.01513550051 43.00221403
1.80313301 3.458136977 39.42063719
-0.1554526634 -0.03004178299 36.71639267
3.9 -9.552245033e-16 32.10375996
-3.9 4.776122517e-16 41.10957053
-1.913620451 3.398243189 38.85811789
3.9 -9.552245033e-16 36.60666524
1.913620451 -3.398243189 34.3552126
-1.913620451 -3.398243189 34.3552126
-1.913620451 3.398243189 34.3552126
1.913620451 3.398243189 34.3552126
-1.913621178 3.398242779 -29.85229035
-3.9 4.776122517e-16 -27.60083579
-0.0003288632745 0.002047327265 -27.59946073
-1.913621178 -3.398242779 -29.85229035
1.855363289 -3.430397509 -34.3638822
3.9 -9.552245033e-16 -32.10374491
-3.9 4.776122517e-16 -4.610487356
0.2707853435 -0.01138854551 -6.915198409
3.9 -9.552245033e-16 -4.610487356
3.9 -9.552245033e-16 45.61247581
0.1872417895 0.2628117762 47.20566432
1.990876998 3.353566576 43.57580334
1.991501427 -3.353195799 43.59476948
-3.9 4.776122517e-16 45.61247581
-1.907801938 -3.401513158 43.44685325
1.950018661 3.377488301 50
-0.1874648004 -0.1082324893 50
-1.949962678 3.377520622 50
1.950000122 -3.377499004 50
0.04803464879 -3.899704178 46.40476327
-1.949999951 -3.377499103 50
3.9 -9.552245033e-16 50
-1.908307825 3.401229372 43.44610002
-1.88749951 3.412820769 -20.74428962
-1.952742839 3.37591401 -25.32665789
1.952742839 3.37591401 -25.32665789
3.9 -9.552245033e-16 -27.60083579
1.930335688 3.3887762 6.983418455
1.913620451 3.398243189 29.85230732
1.702698177 3.50867766 -39.23654498
-1.904133 3.403568351 -43.44253241
-3.9 4.776122517e-16 -41.10956314
3.9 -9.552245033e-16 -41.10956314
3.9 -9.552245033e-16 13.83150528
1.952742968 -3.375913936 20.74725252
-1.931565469 3.388075389 6.847488083
-3.9 4.776122517e-16 36.60666524
3.9 -9.552245033e-16 9.221007124
-1.988213213 3.355146527 2.310738735
1.801122238 -3.459184685 39.42646372
-3.9 4.776122517e-16 -50
-3.9 4.776122517e-16 4.610508964
-1.886872057 3.413167713 -6.915736436
-1.988331194 -3.35507661 2.29982651
3.9 -9.552245033e-16 -9.220985516
1.932525078 3.387528129 -11.46024966
-3.9 4.776122517e-16 1.080371814e-05
2.022080774 3.334844726 -6.915736436
1.952742968 -3.375913936 -6.915736436
-1.931620787 -3.388043851 -11.45761189
-1.988213147 -3.355146567 -6.910252041
3.9 -9.552245033e-16 -13.83148368
-1.904848536 -3.403167944 38.79339926
-2.021860348 -3.334978371 -20.74275982
1.913621178 3.398242779 -34.35519947
-3.9 4.776122517e-16 50
1.913621178 -3.398242779 -29.85229035
-1.952742839 -3.37591401 -25.32665789
-3.9 4.776122517e-16 -23.05248
1.913621178 3.398242779 -29.85229035
1.986238427 -3.356315973 -25.322373
0.05390096365 3.899627506 46.38486728
CELLS 418 2090
4 0 1 2 3
4 4 0 2 3
4 5 6 7 3
4 8 6 5 3
4 5 7 9 3
4 10 6 11 3
4 11 6 12 3
4 0 12 1 3
4 13 4 2 3
4 10 14 6 3
4 15 16 17 18
4 13 2 9 3
4 19 20 21 22
4 23 24 21 22
4 25 26 27 22
4 28 29 30 22
4 25 31 32 22
4 29 19 25 22
4 33 34 35 36
4 37 38 39 36
4 40 33 35 36
4 41 35 42 36
4 43 38 37 36
4 40 35 41 36
4 44 45 46 47
4 48 46 45 47
4 49 50 46 47
4 51 52 53 47
4 51 54 52 47
4 49 46 48 47
4 55 56 57 58
4 59 56 60 58
4 61 62 63 58
4 57 56 64 58
4 63 62 65 58
4 59 64 56 58
4 66 67 27 68
4 69 70 71 68
4 15 72 70 68
4 73 27 26 68
4 72 71 70 68
4 26 27 74 68
4 15 70 75 18
4 69 71 70 18
4 76 77 78 18
4 71 75 70 18
4 79 77 76 18
4 80 81 46 82
4 83 80 84 82
4 48 84 45 82
4 85 46 81 82
4 86 87 43 38
4 86 87 38 30
4 28 86 38 30
4 88 69 89 70
4 69 79 71 18
4 90 91 92 93
4 16 77 94 18
4 95 96 91 93
4 97 77 98 93
4 76 99 77 93
4 100 76 77 93
4 101 100 77 93
4 102 103 62 104
4 63 105 65 62
4 55 106 107 58
4 105 62 103 104
4 108 42 109 35
4 110 33 109 35
4 97 101 94 77
4 41 109 42 35
4 111 112 113 91
4 111 114 112 91
4 115 112 116 91
4 117 118 119 112
4 120 121 122 112
4 123 120 118 112
4 117 123 118 112
4 120 114 121 112
4 95 96 124 91
4 125 126 127 52
4 127 126 104 52
4 127 104 128 52
4 63 103 105 62
4 129 23 20 30
4 130 101 100 77
4 131 56 132 6
4 133 60 59 56
4 59 65 64 58
4 134 131 11 6
4 10 134 11 6
4 26 21 74 27
4 73 26 72 68
4 15 70 17 68
4 135 32 31 22
4 66 27 136 68
4 29 32 30 22
4 40 43 37 36
4 28 137 20 30
4 17 70 89 68
4 25 27 31 22
4 130 100 79 77
4 138 100 96 93
4 86 29 87 30
4 28 20 19 22
4 37 139 129 30
4 39 137 140 38
4 90 141 114 91
4 8 9 142 3
4 130 94 77 18
4 15 17 136 68
4 141 97 98 93
4 88 94 130 18
4 67 71 74 68
4 28 38 137 30
4 79 100 76 77
4 143 140 137 38
4 28 143 137 38
4 144 109 33 35
4 143 140 38 36
4 143 38 145 36
4 39 129 137 38
4 143 86 145 38
4 16 98 94 77
4 139 87 32 30
4 23 20 30 22
4 146 109 147 82
4 10 13 14 3
4 28 29 86 30
4 129 20 137 30
4 143 145 148 36
4 28 86 143 38
4 24 67 74 27
4 139 32 135 30
4 39 38 140 36
4 149 33 144 109
4 41 150 42 109
4 60 131 61 58
4 110 33 149 109
4 144 84 147 82
4 110 150 41 109
4 97 101 77 93
4 123 111 120 112
4 73 15 136 68
4 16 78 99 77
4 73 72 15 68
4 72 74 71 68
4 85 151 109 82
4 146 85 150 109
4 146 110 149 109
4 108 144 34 35
4 151 152 150 109
4 146 147 153 82
4 95 91 154 93
4 97 92 101 93
4 15 17 70 18
4 76 99 78 77
4 53 52 155 47
4 44 80 81 46
4 88 130 69 18
4 53 81 50 47
4 1 12 132 3
4 60 56 131 58
4 61 156 62 58
4 131 55 156 58
4 88 69 70 18
4 16 88 17 18
4 73 136 27 68
4 16 99 98 77
4 17 88 89 70
4 8 132 6 3
4 149 144 147 109
4 66 136 89 68
4 101 96 100 93
4 15 78 16 18
4 26 74 72 68
4 25 73 31 27
4 66 89 67 68
4 133 8 132 6
4 67 74 27 68
4 133 64 5 6
4 61 131 156 58
4 106 65 62 58
4 142 2 1 3
4 5 64 7 6
4 60 132 131 56
4 115 157 122 112
4 61 102 63 62
4 14 64 56 6
4 55 57 106 58
4 106 64 65 58
4 59 63 65 58
4 106 65 105 62
4 158 62 105 104
4 102 103 63 62
4 158 105 159 104
4 150 152 42 109
4 54 48 125 47
4 85 50 81 46
4 146 149 147 109
4 146 150 110 109
4 85 153 50 46
4 43 42 145 36
4 80 151 81 82
4 51 54 127 52
4 125 160 52 47
4 49 54 51 47
4 160 159 103 104
4 49 51 53 47
4 125 160 126 52
4 17 89 136 68
4 16 78 77 18
4 29 25 32 22
4 19 21 26 22
4 73 136 31 27
4 135 66 24 22
4 127 161 128 104
4 127 126 161 104
4 102 126 103 104
4 54 125 127 52
4 133 56 64 6
4 133 132 60 56
4 134 14 56 6
4 10 0 4 3
4 8 142 1 3
4 141 98 154 93
4 141 116 121 91
4 111 114 120 112
4 13 7 14 3
4 14 64 57 56
4 8 5 9 3
4 156 107 161 62
4 134 55 131 56
4 134 56 131 6
4 130 94 101 77
4 134 57 55 56
4 131 132 12 6
4 83 144 109 82
4 125 48 45 47
4 54 125 52 47
4 49 48 54 47
4 147 84 48 82
4 153 147 48 82
4 29 32 87 30
4 49 153 48 46
4 48 45 46 82
4 83 109 151 82
4 110 109 41 35
4 139 135 23 30
4 67 89 69 68
4 86 43 145 38
4 129 139 23 30
4 37 38 87 30
4 40 39 33 36
4 98 77 99 93
4 132 12 6 3
4 142 9 2 3
4 59 60 61 58
4 162 159 53 52
4 133 59 64 56
4 133 132 56 6
4 134 14 57 56
4 133 5 8 6
4 128 107 158 104
4 97 94 98 77
4 107 106 62 58
4 85 153 46 82
4 162 104 159 52
4 160 159 104 52
4 107 161 62 104
4 59 61 63 58
4 51 162 53 52
4 107 62 158 104
4 135 30 32 22
4 37 87 139 30
4 0 11 12 3
4 161 126 102 104
4 51 128 162 52
4 51 127 128 52
4 106 105 158 62
4 119 124 163 112
4 157 119 118 112
4 115 122 116 112
4 67 69 71 68
4 16 94 88 18
4 24 66 27 22
4 23 30 135 22
4 75 76 78 18
4 130 77 79 18
4 89 70 69 68
4 28 30 20 22
4 24 66 67 27
4 154 98 99 93
4 28 19 29 22
4 34 148 35 36
4 37 129 39 38
4 25 26 73 27
4 115 124 112 91
4 79 76 75 18
4 17 88 70 18
4 15 72 75 70
4 26 21 27 22
4 44 125 45 47
4 49 50 153 46
4 53 159 155 52
4 160 103 126 104
4 128 161 107 104
4 160 155 52 47
4 44 45 80 46
4 44 81 155 47
4 44 155 160 47
4 83 144 108 109
4 146 153 85 82
4 129 137 38 30
4 108 109 144 35
4 144 147 109 82
4 131 56 55 58
4 8 1 132 3
4 101 92 96 93
4 115 95 124 91
4 71 79 75 18
4 24 74 21 27
4 95 138 96 93
4 113 112 163 91
4 111 90 114 91
4 114 121 112 91
4 120 122 118 112
4 115 124 119 112
4 117 163 113 112
4 95 154 138 93
4 113 92 90 91
4 141 121 114 91
4 24 27 21 22
4 83 84 144 82
4 135 31 66 22
4 163 124 92 91
4 95 116 154 91
4 128 158 162 104
4 108 148 42 35
4 39 140 34 36
4 34 140 148 36
4 50 81 46 47
4 138 99 76 93
4 39 34 33 36
4 108 42 152 109
4 37 129 38 30
4 110 40 33 35
4 144 33 34 35
4 40 37 39 36
4 148 145 42 36
4 25 19 26 22
4 148 42 35 36
4 138 76 100 93
4 108 34 148 35
4 90 97 141 93
4 72 71 75 70
4 121 116 112 91
4 90 92 97 93
4 66 31 27 22
4 66 31 136 27
4 117 113 111 112
4 163 112 124 91
4 113 163 92 91
4 23 21 20 22
4 90 141 91 93
4 138 154 99 93
4 141 154 91 93
4 43 87 37 38
4 40 41 43 36
4 83 108 152 109
4 92 91 96 93
4 111 113 90 91
4 117 119 163 112
4 157 118 122 112
4 115 119 157 112
4 146 85 109 82
4 128 104 162 52
4 160 104 126 52
4 43 145 38 36
4 141 154 116 91
4 121 116 122 112
4 117 111 123 112
4 115 116 95 91
4 124 96 92 91
4 44 46 81 47
4 23 135 24 22
4 105 103 159 104
4 158 159 162 104
4 80 45 84 82
4 156 107 62 58
4 61 156 102 62
4 160 155 159 52
4 143 148 140 36
4 80 46 45 82
4 53 155 81 47
4 85 81 151 82
4 85 151 150 109
4 83 151 80 82
4 156 161 102 62
4 15 75 78 18
4 69 130 79 18
4 110 41 40 35
4 41 42 43 36
4 83 152 151 109
4 161 102 62 104
4 49 53 50 47
4 13 9 7 3
4 153 48 46 82
4 11 131 12 6
4 14 7 6 3
4 10 4 13 3
4 10 11 0 3
4 55 107 156 58
4 44 160 125 47
4 14 7 64 6
4 107 106 158 62
4 10 14 134 6
4 57 64 106 58
CELL_TYPES 418
10
10
10
10
10
10
10
10
10
10
10
10
10
10
10
10
10
10
10
10
10
10
10
10
10
10
10
10
10
10
10
10
10
10
10
10
10
10
10
10
10
10
10
10
10
10
10
10
10
10
10
10
10
10
10
10
10
10
10
10
10
10
10
10
10
10
10
10
10
10
10
10
10
10
10
10
10
10
10
10
10
10
10
10
10
10
10
10
10
10
10
10
10
10
10
10
10
10
10
10
10
10
10
10
10
10
10
10
10
10
10
10
10
10
10
10
10
10
10
10
10
10
10
10
10
10
10
10
10
10
10
10
10
10
10
10
10
10
10
10
10
10
10
10
10
10
10
10
10
10
10
10
10
10
10
10
10
10
10
10
10
10
10
10
10
10
10
10
10
10
10
10
10
10
10
10
10
10
10
10
10
10
10
10
10
10
10
10
10
10
10
10
10
10
10
10
10
10
10
10
10
10
10
10
10
10
10
10
10
10
10
10
10
10
10
10
10
10
10
10
10
10
10
10
10
10
10
10
10
10
10
10
10
10
10
10
10
10
10
10
10
10
10
10
10
10
10
10
10
10
10
10
10
10
10
10
10
10
10
10
10
10
10
10
10
10
10
10
10
10
10
10
10
10
10
10
10
10
10
10
10
10
10
10
10
10
10
10
10
10
10
10
10
10
10
10
10
10
10
10
10
10
10
10
10
10
10
10
10
10
10
10
10
10
10
10
10
10
10
10
10
10
10
10
10
10
10
10
10
10
10
10
10
10
10
10
10
10
10
10
10
10
10
10
10
10
10
10
10
10
10
10
10
10
10
10
10
10
10
10
10
10
10
10
10
10
10
10
10
10
10
10
10
10
10
10
10
10
10
10
10
10
10
10
10
10
10
10
10
10
10
10
10
10
10
10
10
10
10
10
10
10
10
10
10
10
10
10
10
10
10
10
10
10
10
10
10
10
POINT_DATA 164
SCALARS GLOBAL_ID int 1
LOOKUP_TABLE default
5 
6 
55 
141 
1 
59 
142 
92 
34 
7 
11 
87 
58 
8 
57 
78 
79 
136 
143 
47 
112 
113 
144 
99 
102 
76 
48 
145 
46 
75 
146 
134 
133 
106 
107 
147 
148 
22 
149 
93 
21 
72 
130 
89 
40 
103 
150 
151 
101 
17 
126 
16 
152 
125 
66 
13 
153 
121 
154 
36 
61 
63 
155 
37 
60 
62 
25 
105 
156 
108 
157 
116 
49 
77 
115 
50 
51 
158 
80 
117 
41 
127 
159 
42 
104 
69 
74 
132 
27 
26 
30 
160 
119 
161 
28 
53 
82 
29 
137 
138 
118 
114 
98 
38 
162 
64 
122 
14 
43 
163 
20 
31 
164 
56 
90 
54 
139 
9 
140 
10 
33 
91 
32 
3 
120 
68 
100 
85 
15 
96 
111 
88 
94 
35 
12 
24 
135 
110 
52 
23 
109 
81 
2 
45 
73 
131 
19 
86 
44 
71 
128 
70 
129 
18 
83 
67 
95 
4 
123 
65 
39 
97 
124 
84 
CELL_DATA 418
SCALARS GLOBAL_ID int 1
LOOKUP_TABLE default
1 
2 
3 
4 
5 
6 
7 
8 
9 
10 
11 
12 
13 
14 
15 
16 
17 
18 
19 
20 
21 
22 
23 
24 
25 
26 
27 
28 
29 
30 
31 
32 
33 
34 
35 
36 
37 
38 
39 
40 
41 
42 
43 
44 
45 
46 
47 
48 
49 
50 
51 
52 
53 
54 
55 
56 
57 
58 
59 
60 
61 
62 
63 
64 
65 
66 
67 
68 
69 
70 
71 
72 
73 
74 
75 
76 
77 
78 
79 
80 
81 
82 
83 
84 
85 
86 
87 
88 
89 
90 
91 
92 
93 
94 
95 
96 
97 
98 
99 
100 
101 
102 
103 
104 
105 
106 
107 
108 
109 
110 
111 
112 
113 
114 
115 
116 
117 
118 
119 
120 
121 
122 
123 
124 
125 
126 
127 
128 
129 
130 
131 
132 
133 
134 
135 
136 
137 
138 
139 
140 
141 
142 
143 
144 
145 
146 
147 
148 
149 
150 
151 
152 
153 
154 
155 
156 
157 
158 
159 
160 
161 
162 
163 
164 
165 
166 
167 
168 
169 
170 
171 
172 
173 
174 
175 
176 
177 
178 
179 
180 
181 
182 
183 
184 
185 
186 
187 
188 
189 
190 
191 
192 
193 
194 
195 
196 
197 
198 
199 
200 
201 
202 
203 
204 
205 
206 
207 
208 
209 
210 
211 
212 
213 
214 
215 
216 
217 
218 
219 
220 
221 
222 
223 
224 
225 
226 
227 
228 
229 
230 
231 
232 
233 
234 
235 
236 
237 
238 
239 
240 
241 
242 
243 
244 
245 
246 
247 
248 
249 
250 
251 
252 
253 
254 
255 
256 
257 
258 
259 
260 
261 
262 
263 
264 
265 
266 
267 
268 
269 
270 
271 
272 
273 
274 
275 
276 
277 
278 
279 
280 
281 
282 
283 
284 
285 
286 
287 
288 
289 
290 
291 
292 
293 
294 
295 
296 
297 
298 
299 
300 
301 
302 
303 
304 
305 
306 
307 
308 
309 
310 
311 
312 
313 
314 
315 
316 
317 
318 
319 
320 
321 
322 
323 
324 
325 
326 
327 
328 
329 
330 
331 
332 
333 
334 
335 
336 
337 
338 
339 
340 
341 
342 
343 
344 
345 
346 
347 
348 
349 
350 
351 
352 
353 
354 
355 
356 
357 
358 
359 
360 
361 
362 
363 
364 
365 
366 
367 
368 
369 
370 
371 
372 
373 
374 
375 
376 
377 
378 
379 
380 
381 
382 
383 
384 
385 
386 
387 
388 
389 
390 
391 
392 
393 
394 
395 
396 
397 
398 
399 
400 
401 
402 
403 
404 
405 
406 
407 
408 
409 
410 
411 
412 
413 
414 
415 
416 
417 
418 
SCALARS heating_total_mean double 1
LOOKUP_TABLE default
227.1468017 
275.6851646 
591.1496016 
561.7181046 
437.719363 
554.2939362 
582.3828981 
314.5162555 
268.4253349 
657.5995938 
1383.196275 
247.1250731 
1969.959446 
1857.712588 
2006.969276 
2324.342479 
2019.666519 
2183.103936 
2642.84235 
2628.72617 
2568.253889 
2624.061544 
2373.38087 
2887.343319 
2456.305094 
2580.61675 
2630.064053 
2337.13097 
2275.115293 
2530.208831 
1102.618406 
1121.927534 
1516.554714 
1010.543922 
1647.052582 
1107.437888 
1930.941434 
1726.952496 
1680.938098 
1767.62435 
1697.67035 
1989.014276 
1398.185195 
1593.78715 
1148.148207 
1497.80236 
1255.352401 
2671.033338 
2430.307489 
2774.237328 
2613.188775 
2149.574099 
2337.725227 
2334.87544 
1526.546403 
1309.19363 
640.5769853 
1103.047533 
671.4889505 
1023.4134 
1052.202938 
942.5151747 
881.6022706 
1991.940383 
1800.202872 
1442.89439 
1949.357468 
2625.201404 
2660.762943 
1108.850846 
2562.318498 
447.813905 
414.1725846 
416.3868063 
147.9412934 
201.4706106 
133.0574839 
154.3712305 
302.0966957 
571.1533192 
2154.076584 
2099.343234 
2302.850036 
1738.781345 
2229.149551 
1012.715805 
875.547879 
1023.139141 
1220.131687 
864.8261197 
708.7069738 
1919.532841 
1723.158486 
1624.237612 
2305.259208 
1894.294928 
2090.366305 
2389.844617 
2236.812767 
1971.512981 
2055.743006 
1098.467601 
757.5023237 
1988.587009 
2096.832336 
2262.472696 
2354.233426 
574.9680883 
310.8557123 
1064.621202 
1670.376553 
889.0989621 
1128.041817 
1827.423502 
2264.047138 
998.8363591 
2405.767464 
2212.824918 
2543.761628 
2614.734222 
2667.039052 
2385.923721 
2330.139837 
1069.664445 
2086.390345 
2226.98113 
2769.633482 
496.0629855 
2241.801744 
2288.225438 
2306.711444 
2297.617205 
2060.115054 
2125.395675 
2619.576946 
2504.010478 
2406.130854 
1179.926695 
2523.101369 
2404.15507 
2548.062733 
939.8832163 
220.0861206 
1720.776025 
1179.867252 
1628.573542 
1684.159926 
2609.495825 
2694.721317 
2656.041239 
2395.539809 
2611.50025 
2606.858033 
650.6184665 
855.8041473 
1511.461847 
1115.011427 
2345.60757 
2367.583403 
1313.189068 
2165.682825 
465.7578281 
1058.96278 
1647.727957 
1315.699922 
1491.952611 
1447.284086 
1776.475356 
1060.879267 
1593.211789 
526.0963173 
2690.415426 
1964.291503 
805.6907424 
1294.0259 
1845.81684 
1920.940051 
1956.398735 
741.335567 
1912.144331 
894.9555034 
1195.378873 
1463.724581 
232.5804213 
674.5130456 
925.8407446 
157.1798261 
1672.442404 
951.0243291 
1158.204898 
1174.328198 
1435.350638 
1601.684812 
1873.893465 
1707.289582 
1928.602151 
2518.4081 
2304.783797 
2427.437496 
2477.937616 
2645.681869 
2256.108804 
2578.356701 
2648.934515 
2294.206114 
2362.056449 
2178.903229 
2033.821707 
2167.095471 
2175.681161 
1696.193586 
1235.164721 
2147.549899 
1872.721486 
1952.101206 
2067.622537 
2203.07613 
2246.537092 
1951.865541 
2111.101561 
972.3584367 
840.452705 
979.5110466 
335.2995289 
288.6917851 
753.1452326 
540.8550967 
275.5746449 
511.4294073 
937.6765391 
381.7392594 
1942.457467 
974.5847707 
857.254814 
912.3085969 
998.647243 
676.7026914 
2673.831532 
2294.583267 
2256.02706 
2361.111973 
2777.880842 
2650.972171 
1991.343389 
2559.357683 
2668.631599 
2705.149668 
2779.50827 
2212.927449 
1695.324578 
2315.700641 
2260.971973 
2298.894147 
2406.417863 
989.1068415 
592.3239231 
240.7488266 
1279.350181 
2234.088288 
1085.586436 
904.6159697 
902.5944603 
718.245247 
1986.661375 
1073.28293 
1551.846764 
2752.923238 
2052.888062 
2077.420193 
1890.506544 
1419.867887 
2368.030713 
1784.390951 
2205.446926 
2204.449408 
433.5371244 
2134.204726 
1991.32359 
2074.231935 
1901.445224 
276.2478815 
121.0459964 
236.0796556 
1674.749801 
1237.781503 
2018.282938 
2309.309172 
1182.01871 
1159.381986 
1808.947098 
2210.719056 
1878.776775 
932.2185119 
2243.869918 
2631.219969 
2167.536237 
1857.934052 
429.533597 
1168.387834 
1614.226249 
1451.820553 
2111.195134 
2314.967756 
2371.829566 
1993.579849 
2031.715712 
2019.429922 
2441.514512 
2457.071857 
2282.834966 
2312.53206 
2318.734151 
2538.98444 
2264.037668 
2520.917877 
2723.565656 
1192.845354 
467.9845562 
764.3689783 
439.7422647 
1319.737872 
2002.278148 
726.4138044 
415.9442204 
452.2457072 
330.1584924 
126.1455658 
257.5445571 
312.6221367 
755.7495661 
567.6224688 
475.0654827 
1960.619843 
2421.377107 
2046.025617 
544.3993102 
547.1839443 
2030.933133 
2309.349286 
2557.048203 
2481.047869 
2606.951299 
884.3414339 
2491.055619 
2388.646851 
2458.259718 
2385.832723 
2545.041729 
2688.091138 
2557.563663 
1968.814324 
2505.431618 
799.0395056 
2465.9849 
845.3714519 
1476.031648 
367.0338604 
700.7927447 
2172.233876 
2042.464963 
323.4081384 
407.4748965 
470.586366 
2016.757096 
624.3816916 
810.6865324 
676.2465073 
2061.970589 
2482.897985 
2389.697447 
709.3692069 
454.1917259 
178.747368 
110.1402294 
176.8904816 
2760.340705 
2080.001745 
2068.897696 
2521.649363 
550.4181948 
241.1367514 
204.1448607 
466.2235324 
587.0332727 
2505.454465 
2067.372956 
2084.291408 
2044.512071 
2405.052531 
1696.366368 
1756.318694 
2032.88152 
2349.502242 
2714.126744 
2047.283183 
2720.211945 
2573.759995 
2706.704392 
1922.106857 
1277.647489 
1379.265497 
2646.00584 
2630.762875 
2432.700596 
1864.172567 
2401.015476 
301.6389224 
2768.504517 
699.7100124 
584.8905194 
423.0417379 
387.7004976 
1407.481168 
2221.624641 
811.4158003 
1799.404186 
737.2951468 
1159.865978 
SCALARS heating_total_std_dev double 1
LOOKUP_TABLE default
23.26392608 
35.58347773 
81.38457588 
40.7723184 
67.05321038 
40.25616357 
46.58475785 
42.21092963 
34.09500727 
57.63228812 
91.19256646 
24.04498897 
97.71574376 
81.96881158 
94.16744143 
84.42849617 
95.34008164 
98.5510687 
106.8407231 
94.65460452 
100.4959001 
98.08393429 
84.61415482 
105.6289982 
85.15634779 
107.4768749 
118.7524796 
92.50863078 
84.18392539 
105.4935191 
53.50748201 
51.28113503 
91.06372305 
52.69490146 
72.81414296 
55.89665473 
89.18689233 
82.15823208 
87.6840716 
80.09281499 
86.83203416 
120.3564066 
96.18639518 
104.1048886 
65.77535207 
79.23507421 
78.98293255 
131.8055895 
88.2486067 
128.967016 
105.5522536 
77.02852536 
87.657451 
93.78483831 
78.49233035 
77.01538956 
51.49501502 
78.66834933 
55.20918564 
99.94833452 
74.63282478 
69.66587867 
63.37911431 
88.65784202 
96.12030626 
68.51489937 
85.87212727 
100.3861554 
93.96132306 
85.37694688 
81.29583984 
53.46865328 
46.27213947 
43.3324515 
16.82499323 
29.21539324 
19.23968501 
17.39658986 
62.7206758 
64.59874039 
110.3625442 
88.8845277 
80.57610119 
78.19728162 
94.03411386 
83.98976649 
53.12978572 
63.90133513 
70.44807147 
82.73953291 
63.9120046 
82.22953945 
104.4749842 
95.54378375 
136.6177031 
76.26513548 
65.93928935 
101.3592961 
95.99187346 
113.3850928 
81.11946903 
91.49249223 
66.24322808 
77.36420343 
91.43903399 
92.95871871 
78.88140105 
49.91952328 
29.27773559 
67.25840595 
123.3470337 
72.51362665 
67.80541157 
110.8711572 
64.99925955 
74.84992526 
91.36436081 
77.08886341 
75.06012782 
92.03483442 
129.6431748 
93.30402862 
76.89261688 
81.31027953 
72.59594557 
94.37070123 
78.21825891 
45.90915586 
99.43516436 
87.91354492 
78.38635378 
100.1363281 
119.7143075 
85.92911189 
84.00184547 
90.21191838 
81.35777497 
73.18130087 
106.7560785 
91.91541668 
97.2354677 
74.16353766 
24.73970114 
90.15108442 
74.89713094 
91.48159961 
95.47176992 
90.47129395 
100.2100291 
88.15043362 
90.66993428 
128.8263317 
94.709913 
49.8006835 
75.02334224 
91.18015631 
82.07874635 
82.36025207 
109.3155869 
79.64058224 
82.09850912 
41.45768321 
57.44917868 
88.72611907 
67.19625229 
88.37794964 
89.46997009 
77.42664821 
80.98918973 
102.1403502 
41.53955791 
120.6012392 
119.1442471 
63.14261487 
79.2961545 
105.1984288 
95.3186625 
102.1181722 
71.1255853 
103.4821748 
86.58975614 
69.69254478 
59.90960378 
25.76118462 
57.46540917 
60.97996703 
17.27979063 
94.79181691 
67.9403588 
57.75539181 
53.2049432 
71.54316174 
69.80228952 
93.35114598 
90.71643364 
94.89298858 
115.3349565 
100.6541846 
111.5779908 
83.77832723 
106.6844787 
87.67881446 
98.18087154 
114.3147296 
101.2768634 
105.8963416 
88.84681835 
87.46292713 
87.94112473 
103.0070536 
103.7465985 
73.16620034 
120.8876414 
95.20876028 
102.7819201 
109.8732657 
96.96084652 
126.2686988 
80.03075338 
86.23784274 
68.95271117 
54.59715319 
96.58923828 
36.15514216 
23.4642176 
59.96350243 
75.74002802 
31.20062132 
54.38441982 
65.75406423 
30.00694434 
106.4496583 
68.47541924 
54.84999529 
58.67099091 
68.53188273 
45.75818847 
87.83807976 
105.7911329 
87.80960848 
107.1061342 
132.2429962 
109.2770837 
82.93610823 
128.2512924 
119.8341126 
96.86760497 
109.9902934 
109.784725 
97.28104826 
105.5266964 
86.90031011 
87.83049753 
87.01829836 
68.44721931 
56.08998322 
27.61691398 
73.14227753 
92.12189836 
82.70485792 
63.72291223 
75.26053842 
65.15751061 
140.0893315 
76.26244442 
69.36591949 
106.7142896 
64.46368389 
82.36170724 
77.69771381 
74.61524307 
116.2291956 
67.03508173 
79.42571497 
98.57327227 
54.38665554 
109.5099309 
94.73885064 
97.72845852 
128.7859277 
41.26529385 
23.31697412 
18.87820906 
95.5531296 
90.06859436 
84.14923088 
96.56329745 
77.28326122 
70.6521734 
109.0433355 
87.79218076 
79.30789024 
86.47693409 
97.44278407 
105.3753737 
68.3651995 
84.58361827 
51.16166132 
63.81501704 
106.6309791 
81.51083605 
98.74885251 
103.3821633 
85.9289414 
79.53558711 
98.40672986 
103.275031 
128.8578629 
97.34806564 
105.3218556 
111.7332443 
70.05386564 
87.98825881 
78.19456115 
81.04603962 
88.12287939 
55.41775283 
39.37449051 
70.24822249 
40.50411154 
79.0987428 
91.7600855 
65.52427553 
46.38514796 
44.15396074 
33.98891332 
16.32480026 
21.50824905 
30.4954858 
71.89278474 
55.35917364 
45.93739858 
72.52138207 
90.8736949 
92.02734512 
58.17171298 
54.60765976 
101.0699735 
80.28663065 
91.54884672 
97.44556256 
126.7638229 
62.08101467 
106.8500775 
99.83470831 
104.7078914 
80.58918859 
105.9716066 
121.6780089 
112.3631245 
87.66773548 
87.04947723 
52.82739763 
116.1202465 
98.73051443 
90.57753399 
35.27696749 
57.68227738 
108.3425491 
104.3029982 
41.23979948 
53.68578835 
47.6510373 
100.2328881 
51.93041519 
74.18554185 
52.46623034 
81.07910028 
94.73426287 
85.46092791 
57.03696279 
54.75052141 
29.38255899 
15.29755943 
23.88192198 
88.49550539 
73.75589439 
73.13049648 
85.66401518 
55.92188696 
21.65319411 
30.14583297 
47.68575897 
54.78907644 
114.0051746 
95.43019922 
110.9636616 
87.49801933 
105.0958783 
82.33965627 
90.72273036 
88.77434124 
81.98429863 
122.1376468 
78.8999395 
137.2717893 
97.83889439 
140.0937984 
114.1568389 
83.49721342 
96.36883354 
112.2881651 
109.8429437 
92.27772327 
80.08118634 
110.9312022 
43.40610501 
113.4832044 
60.004575 
56.3132499 
64.6841308 
27.24975979 
59.11736992 
99.57890921 
72.86550611 
90.68674039 
59.54099774 
72.93425654 
SCALARS flux_total_mean double 1
LOOKUP_TABLE default
0.0002341572944 
0.000235196189 
0.0005794068092 
0.000588448 
0.0003895494709 
0.0005758013874 
0.0005720376936 
0.000264820612 
0.0002449483772 
0.0006193141028 
0.001290052881 
0.0002558897093 
0.001860178659 
0.001833837807 
0.002077000281 
0.002334185312 
0.001817591368 
0.001925274345 
0.002634285026 
0.002517388957 
0.002595179004 
0.002553217772 
0.002404683938 
0.002685755386 
0.002490479589 
0.002530718779 
0.002541054736 
0.002345182107 
0.002286721293 
0.002489405828 
0.001206591181 
0.001182984811 
0.001541846238 
0.001125017659 
0.001640007825 
0.001177939457 
0.001949448587 
0.001665131321 
0.001667745117 
0.001823888953 
0.001771851873 
0.001950882057 
0.001462647194 
0.00151430439 
0.001226372557 
0.001554593858 
0.00122383835 
0.002583752233 
0.002290639776 
0.002306378419 
0.002518393151 
0.002055337879 
0.002300823354 
0.002345052699 
0.001438422625 
0.001202998492 
0.0006721919299 
0.00115856213 
0.0006507359346 
0.0009679429732 
0.001012135019 
0.0009723002197 
0.0009603112099 
0.001949549896 
0.001523447365 
0.001338440025 
0.001946765304 
0.002591584191 
0.002638775964 
0.0009207686683 
0.002589855483 
0.0004051505641 
0.0003824897931 
0.0004003435918 
0.000143438461 
0.0001809911634 
0.00012955714 
0.0001480360981 
0.000238279174 
0.0005013039286 
0.001935752325 
0.002140398498 
0.002249195141 
0.001636680126 
0.002000067987 
0.0009285107307 
0.0008815640753 
0.0009658911765 
0.001159746319 
0.0007262115175 
0.0006343139967 
0.00181124946 
0.001551520031 
0.001621696536 
0.001941615981 
0.001934894978 
0.002216899211 
0.002128314072 
0.002118055531 
0.001739502531 
0.002090829117 
0.001014901984 
0.0006983952868 
0.001962712112 
0.001993688234 
0.002016226247 
0.002228970473 
0.0005194943419 
0.0002842301798 
0.001107837183 
0.001471729949 
0.0007767071182 
0.001060121407 
0.001624555569 
0.002428104718 
0.0009603041959 
0.002220147031 
0.002133778855 
0.002615630662 
0.002629514026 
0.002502444918 
0.002125100726 
0.002128247314 
0.0009458335932 
0.001979988397 
0.002244837687 
0.002793303453 
0.0004311829575 
0.002062006943 
0.002128865759 
0.002216495443 
0.002123368497 
0.001776918356 
0.00196077149 
0.002585756578 
0.00228534096 
0.002254804618 
0.001079729399 
0.00221017669 
0.002270111791 
0.002253741718 
0.0009627228369 
0.0001983833708 
0.001512419204 
0.001020179864 
0.00150961835 
0.001590219969 
0.002660712377 
0.002319672783 
0.002351089455 
0.002267614987 
0.002310556983 
0.002432972105 
0.0006361731881 
0.0007399656402 
0.001603442212 
0.0009879771548 
0.002346556999 
0.002173569505 
0.001237618548 
0.002088584776 
0.0003966570896 
0.001132260195 
0.001614963012 